Create by autotest system
2 atoms
2 atom types
-5 5 xlo xhi
-5 5 ylo yhi
-5 5 zlo zhi
Masses

1 1.000794
2 0.000544616997098749

Atoms

1 1 1 0 1 0 1.0 0.0 0.0 1.0 1.0
2 2 -1 1 0.202950451288 1 1.0 0.0 0.0 0.0 0.0

