Created by AJB

2 atoms
2 atom types

-1 1 xlo xhi
-1 1 ylo yhi
-1 1 zlo zhi

Masses

1 1.000794	            # H nuclei mass
2 0.0005485799090700234	# electron mass

Atoms 

1 1  1.0  0  0.000000 0 1.0 0.0 0.0 0.0 0.0   # 0-tag 1-type 2-q 3-spin 4-eradius 5-etag 6-cs_re 7-cs_im 8-x 9-y 10-z
2 2 -1.0  1  1.6281029873166 1 1.0 0.0 0.0 0.0 0.0
