Create by autotest system
2048 atoms
2 atom types
-5 5 xlo xhi
-5 5 ylo yhi
-5 5 zlo zhi
Masses

1 1.000794
2 0.0005446169970987488

Atoms

1 1 1 0 1.0 0 1.0 0.0 2.78799341188 -3.85964581973 -0.993524865137
2 1 1 0 1.0 0 1.0 0.0 -4.58843251079 0.055335593615 0.25938462836
3 1 1 0 1.0 0 1.0 0.0 0.956685666891 0.739528148301 2.73288496087
4 1 1 0 1.0 0 1.0 0.0 3.50287053919 -2.20595786822 -4.93818565918
5 1 1 0 1.0 0 1.0 0.0 3.29321823489 1.01167424682 -1.59600590025
6 1 1 0 1.0 0 1.0 0.0 -2.66932480663 -1.94607390736 4.45425839647
7 1 1 0 1.0 0 1.0 0.0 -2.97656702426 4.18828699877 3.79588896602
8 1 1 0 1.0 0 1.0 0.0 0.104965311261 -2.65733050637 -4.20883621478
9 1 1 0 1.0 0 1.0 0.0 1.55303140076 4.00616011187 -3.75092725045
10 1 1 0 1.0 0 1.0 0.0 2.30125364667 -0.80175377605 4.10271212473
11 1 1 0 1.0 0 1.0 0.0 4.34366600123 -2.96599527095 -3.48515930453
12 1 1 0 1.0 0 1.0 0.0 -1.50207992131 4.85222338209 2.84038057148
13 1 1 0 1.0 0 1.0 0.0 -4.53811939519 -2.26634583553 -4.40049962716
14 1 1 0 1.0 0 1.0 0.0 -4.19616756071 2.74065185324 4.18145221812
15 1 1 0 1.0 0 1.0 0.0 -2.21403257151 -3.20350273984 -3.99923192502
16 1 1 0 1.0 0 1.0 0.0 -0.639488964596 2.3048614619 -2.81214327839
17 1 1 0 1.0 0 1.0 0.0 3.6247731512 -3.62851161868 -0.256623908628
18 1 1 0 1.0 0 1.0 0.0 0.675515062413 -1.59206895255 -3.35448652347
19 1 1 0 1.0 0 1.0 0.0 -4.57658458992 -1.95495713532 -2.83405827187
20 1 1 0 1.0 0 1.0 0.0 1.17034001398 -3.19982807004 -3.24829681256
21 1 1 0 1.0 0 1.0 0.0 -0.0895707540233 -3.09071939056 3.77171213966
22 1 1 0 1.0 0 1.0 0.0 -4.91458870779 1.89635581233 -4.3800857759
23 1 1 0 1.0 0 1.0 0.0 -1.58353745371 0.559624963397 3.82192893518
24 1 1 0 1.0 0 1.0 0.0 3.14615745957 0.0427816782656 -1.74933269544
25 1 1 0 1.0 0 1.0 0.0 -3.67213422937 -3.59905964285 -4.4044425587
26 1 1 0 1.0 0 1.0 0.0 -3.09146929966 1.70928911743 1.74309731275
27 1 1 0 1.0 0 1.0 0.0 2.31500964837 -1.9636344326 -0.489353395095
28 1 1 0 1.0 0 1.0 0.0 -4.22697527313 -0.871383277877 4.65727422621
29 1 1 0 1.0 0 1.0 0.0 1.01608498849 -1.88394929964 -1.95115992378
30 1 1 0 1.0 0 1.0 0.0 -0.960209034284 -0.0256859590805 1.98566538698
31 1 1 0 1.0 0 1.0 0.0 3.02728365635 3.3772160442 -0.0955220620114
32 1 1 0 1.0 0 1.0 0.0 -3.3821292208 4.23266859455 -0.0240034199655
33 1 1 0 1.0 0 1.0 0.0 0.0449984340169 -4.04120180969 4.58476603078
34 1 1 0 1.0 0 1.0 0.0 -4.03264419467 -0.417385800692 -2.0139681057
35 1 1 0 1.0 0 1.0 0.0 -1.1159219048 3.03951483883 -4.14547022249
36 1 1 0 1.0 0 1.0 0.0 -1.53166867179 0.362852643091 0.115706499456
37 1 1 0 1.0 0 1.0 0.0 -2.33190370274 -0.39641293504 2.31777216435
38 1 1 0 1.0 0 1.0 0.0 1.9875401898 -2.35670731696 -4.51458557465
39 1 1 0 1.0 0 1.0 0.0 -0.967613331791 -4.37580429623 -1.10104816505
40 1 1 0 1.0 0 1.0 0.0 0.45116647283 -1.44134588779 0.270764092374
41 1 1 0 1.0 0 1.0 0.0 0.920342208361 3.4204775787 -3.80456766284
42 1 1 0 1.0 0 1.0 0.0 -3.87089383944 2.8968119699 1.32875740333
43 1 1 0 1.0 0 1.0 0.0 -0.745445775497 2.89057242392 -3.24859028137
44 1 1 0 1.0 0 1.0 0.0 4.22151085508 2.17620391895 -2.47419155984
45 1 1 0 1.0 0 1.0 0.0 -0.654869756966 -3.23256942362 0.706949374258
46 1 1 0 1.0 0 1.0 0.0 3.0407957408 -4.35358538347 2.87605233156
47 1 1 0 1.0 0 1.0 0.0 -2.11467733741 3.54192314977 0.139768411532
48 1 1 0 1.0 0 1.0 0.0 1.82484034228 2.69482241912 1.40453868881
49 1 1 0 1.0 0 1.0 0.0 3.88006742296 0.921485082152 0.177657486447
50 1 1 0 1.0 0 1.0 0.0 -1.69900687406 2.88960480598 4.26502846808
51 1 1 0 1.0 0 1.0 0.0 -3.98058309436 0.331255317399 -4.92731443526
52 1 1 0 1.0 0 1.0 0.0 -4.43590129286 1.82191794154 1.66135733586
53 1 1 0 1.0 0 1.0 0.0 -3.36258893176 1.31821609509 3.76471853355
54 1 1 0 1.0 0 1.0 0.0 -0.347550330624 -4.98011271877 -2.90819080631
55 1 1 0 1.0 0 1.0 0.0 2.62545183662 -4.15110556758 2.81726092607
56 1 1 0 1.0 0 1.0 0.0 -1.67433224662 -3.46261908128 -3.62075275352
57 1 1 0 1.0 0 1.0 0.0 2.33321090133 2.25206444283 -2.94185821595
58 1 1 0 1.0 0 1.0 0.0 4.49338852378 4.92146917919 -0.7616207988
59 1 1 0 1.0 0 1.0 0.0 2.6784226709 0.25661445858 4.33402603305
60 1 1 0 1.0 0 1.0 0.0 4.73555912701 3.83825445134 4.6544856523
61 1 1 0 1.0 0 1.0 0.0 -3.9388809181 0.583659574515 -3.1090688148
62 1 1 0 1.0 0 1.0 0.0 -2.79759493115 3.99959432293 -4.46367652865
63 1 1 0 1.0 0 1.0 0.0 0.472518533477 4.864071656 -3.53958307019
64 1 1 0 1.0 0 1.0 0.0 4.8349210846 1.9289390173 -3.252787104
65 1 1 0 1.0 0 1.0 0.0 0.16834295825 0.612005812694 -1.7519029222
66 1 1 0 1.0 0 1.0 0.0 -2.65087250799 0.723032609656 2.81608027499
67 1 1 0 1.0 0 1.0 0.0 2.06030163196 -2.26314988035 -2.54486822561
68 1 1 0 1.0 0 1.0 0.0 -1.22975058966 -2.77960346899 1.02522444784
69 1 1 0 1.0 0 1.0 0.0 2.45950342045 1.6250596511 4.65439921709
70 1 1 0 1.0 0 1.0 0.0 2.37707358456 2.22715220968 -1.8718082522
71 1 1 0 1.0 0 1.0 0.0 -1.84281778867 -2.26492274772 3.83926886031
72 1 1 0 1.0 0 1.0 0.0 -3.17408944017 -2.74886877647 2.77816414449
73 1 1 0 1.0 0 1.0 0.0 1.54354373106 2.96420984917 -3.79666083775
74 1 1 0 1.0 0 1.0 0.0 -0.79553862758 -3.92355119536 1.00689935116
75 1 1 0 1.0 0 1.0 0.0 -3.44445008744 -1.47325641107 2.37326925805
76 1 1 0 1.0 0 1.0 0.0 -3.25505527024 1.17712416529 3.29002568432
77 1 1 0 1.0 0 1.0 0.0 -0.541752810957 -0.770218377697 -0.401975729339
78 1 1 0 1.0 0 1.0 0.0 0.0144978650305 -1.39211223024 3.99148605848
79 1 1 0 1.0 0 1.0 0.0 -2.64389310327 0.751624519795 1.8661706043
80 1 1 0 1.0 0 1.0 0.0 -3.41936178902 -0.412408885126 -0.0434127280848
81 1 1 0 1.0 0 1.0 0.0 -2.95557074349 2.13711906123 0.631166521054
82 1 1 0 1.0 0 1.0 0.0 0.767505932611 3.31345612447 -0.643298011567
83 1 1 0 1.0 0 1.0 0.0 3.36344675485 -4.39315885747 0.421544934164
84 1 1 0 1.0 0 1.0 0.0 -0.802707056501 2.5935672101 -1.54523117046
85 1 1 0 1.0 0 1.0 0.0 0.936143120127 -2.96579778202 2.88556603786
86 1 1 0 1.0 0 1.0 0.0 -4.47598089816 2.99239427645 3.52091467087
87 1 1 0 1.0 0 1.0 0.0 -1.75261249523 -3.40555190768 3.31107014228
88 1 1 0 1.0 0 1.0 0.0 1.1227705608 -4.30749043236 -0.492071359213
89 1 1 0 1.0 0 1.0 0.0 0.552260185059 2.61099522172 -4.1211713883
90 1 1 0 1.0 0 1.0 0.0 4.75027773643 1.08223102016 -2.87910156443
91 1 1 0 1.0 0 1.0 0.0 1.54307901918 -0.799577458118 4.7097835149
92 1 1 0 1.0 0 1.0 0.0 4.03585776971 4.04105506638 -4.09025972648
93 1 1 0 1.0 0 1.0 0.0 2.95250251386 -4.03436886777 -0.351064259559
94 1 1 0 1.0 0 1.0 0.0 3.34006801134 -3.28756829597 4.85064333068
95 1 1 0 1.0 0 1.0 0.0 2.88315240149 -1.57047196546 -2.56287967499
96 1 1 0 1.0 0 1.0 0.0 -3.20172188389 2.90192725641 4.68509902535
97 1 1 0 1.0 0 1.0 0.0 -1.53991576128 0.627763232922 1.75988530062
98 1 1 0 1.0 0 1.0 0.0 -3.36086448584 2.57354973558 -4.24986880605
99 1 1 0 1.0 0 1.0 0.0 -2.51973476179 -3.46083577906 -2.97550664242
100 1 1 0 1.0 0 1.0 0.0 1.29901799626 0.798188063061 2.4538324211
101 1 1 0 1.0 0 1.0 0.0 3.3280141333 -4.25956888607 -0.859251818233
102 1 1 0 1.0 0 1.0 0.0 -1.92886955108 0.257436831464 -3.30999248628
103 1 1 0 1.0 0 1.0 0.0 3.55411628772 1.7965123956 1.5105852474
104 1 1 0 1.0 0 1.0 0.0 0.325912682356 -3.68589351808 -4.32689657811
105 1 1 0 1.0 0 1.0 0.0 -4.12419087223 -4.87120422081 2.39703019325
106 1 1 0 1.0 0 1.0 0.0 3.78425530393 -2.74506804879 0.860689623432
107 1 1 0 1.0 0 1.0 0.0 -0.409750961355 -3.445152381 2.85581430678
108 1 1 0 1.0 0 1.0 0.0 -4.16406369396 4.81379318653 3.27179174889
109 1 1 0 1.0 0 1.0 0.0 2.89775590037 0.942643841579 -4.97775487428
110 1 1 0 1.0 0 1.0 0.0 -3.00286970762 4.58998163965 -1.83364092246
111 1 1 0 1.0 0 1.0 0.0 -0.928069435506 -3.83891402993 -2.50396129418
112 1 1 0 1.0 0 1.0 0.0 -2.74227981586 -1.29932683329 -4.39726222766
113 1 1 0 1.0 0 1.0 0.0 -1.99602886134 -4.98430861594 0.483762460161
114 1 1 0 1.0 0 1.0 0.0 2.03372727044 -1.56989888592 1.95563174788
115 1 1 0 1.0 0 1.0 0.0 -2.24828962946 4.38449026027 -0.500779371869
116 1 1 0 1.0 0 1.0 0.0 -0.062038914423 2.02327924257 0.758129413173
117 1 1 0 1.0 0 1.0 0.0 -2.84831570483 -0.434259034562 1.37637077698
118 1 1 0 1.0 0 1.0 0.0 -4.49276941018 -0.173721093227 3.23883961217
119 1 1 0 1.0 0 1.0 0.0 3.90788442801 -1.49650677158 4.5692213487
120 1 1 0 1.0 0 1.0 0.0 4.31280421531 3.90291121679 3.97018468165
121 1 1 0 1.0 0 1.0 0.0 -1.41120977326 -2.60461875268 1.56601121125
122 1 1 0 1.0 0 1.0 0.0 -0.530545842886 -0.348473053718 -2.29343725248
123 1 1 0 1.0 0 1.0 0.0 2.16269772335 3.12655841882 4.87523915443
124 1 1 0 1.0 0 1.0 0.0 1.57383351154 -3.04956598302 -3.27539830541
125 1 1 0 1.0 0 1.0 0.0 -0.941719977092 -3.80512342372 4.56615964261
126 1 1 0 1.0 0 1.0 0.0 -3.61380040379 -2.857005839 -4.81131670165
127 1 1 0 1.0 0 1.0 0.0 0.644380658029 2.29262328866 -1.05709736513
128 1 1 0 1.0 0 1.0 0.0 1.34329722521 0.654479877929 2.5379142989
129 1 1 0 1.0 0 1.0 0.0 -3.41404376692 2.03099882846 1.61865359599
130 1 1 0 1.0 0 1.0 0.0 4.64583929054 4.96958520402 -0.703687646226
131 1 1 0 1.0 0 1.0 0.0 -4.6339282431 -1.65727888438 -2.6605414558
132 1 1 0 1.0 0 1.0 0.0 4.08058161717 -0.676118428749 4.0265728849
133 1 1 0 1.0 0 1.0 0.0 -4.12472003172 -1.12466671729 4.2578800443
134 1 1 0 1.0 0 1.0 0.0 1.48469825748 -3.63807229595 4.91759287236
135 1 1 0 1.0 0 1.0 0.0 1.70488468974 -1.67520479481 -3.78388169969
136 1 1 0 1.0 0 1.0 0.0 -1.60628717456 2.83167004629 4.01172802391
137 1 1 0 1.0 0 1.0 0.0 -1.59578006208 3.36627849094 -0.338934318461
138 1 1 0 1.0 0 1.0 0.0 -2.200684301 -0.0350488414237 4.65022926401
139 1 1 0 1.0 0 1.0 0.0 -4.60068273136 4.61881562646 -4.39528864491
140 1 1 0 1.0 0 1.0 0.0 -3.6104256519 0.53270589524 4.3473975802
141 1 1 0 1.0 0 1.0 0.0 -4.79829069807 -4.43928979736 2.54583717336
142 1 1 0 1.0 0 1.0 0.0 -0.365032467114 2.42734155912 -3.80411884204
143 1 1 0 1.0 0 1.0 0.0 3.30234012193 -4.29788818596 -1.20428095667
144 1 1 0 1.0 0 1.0 0.0 1.65062365951 3.20140141828 1.740635236
145 1 1 0 1.0 0 1.0 0.0 1.60663153573 -0.996997905572 4.11390220081
146 1 1 0 1.0 0 1.0 0.0 -3.89633698663 -2.03758158629 1.47934012298
147 1 1 0 1.0 0 1.0 0.0 -4.78626296612 1.47618305998 1.56620590233
148 1 1 0 1.0 0 1.0 0.0 -3.11856568252 -3.55669218187 1.15768712769
149 1 1 0 1.0 0 1.0 0.0 3.2070353723 -4.68312746718 3.9686779154
150 1 1 0 1.0 0 1.0 0.0 3.26034925494 -0.799999601152 0.65311615517
151 1 1 0 1.0 0 1.0 0.0 4.72732329289 2.12837024848 -1.05668900253
152 1 1 0 1.0 0 1.0 0.0 0.28324669104 3.69668418267 1.42848343884
153 1 1 0 1.0 0 1.0 0.0 -4.78380891936 1.22697231525 -1.48293339669
154 1 1 0 1.0 0 1.0 0.0 -1.86784382463 1.31459081941 3.81775049993
155 1 1 0 1.0 0 1.0 0.0 -3.58004626201 3.27652745244 3.01549458297
156 1 1 0 1.0 0 1.0 0.0 1.13249014442 2.71596130879 -2.47001396299
157 1 1 0 1.0 0 1.0 0.0 4.58864072808 -2.56543586998 -4.76897998764
158 1 1 0 1.0 0 1.0 0.0 4.08796529078 4.97162376933 0.814554825525
159 1 1 0 1.0 0 1.0 0.0 -4.3219078864 0.817598708468 0.0515704614707
160 1 1 0 1.0 0 1.0 0.0 3.75467218006 -4.50387411326 4.87503859138
161 1 1 0 1.0 0 1.0 0.0 -0.943324001963 0.936154270661 -0.401892775949
162 1 1 0 1.0 0 1.0 0.0 -4.33451596549 -3.36631994466 -3.56887274328
163 1 1 0 1.0 0 1.0 0.0 -2.49043060349 -2.38147317721 -2.67201219005
164 1 1 0 1.0 0 1.0 0.0 -4.39261143661 3.48204876809 -0.174838619906
165 1 1 0 1.0 0 1.0 0.0 4.42322816478 -1.38969132805 3.66277234256
166 1 1 0 1.0 0 1.0 0.0 4.25669824307 2.38675228101 -0.959975537574
167 1 1 0 1.0 0 1.0 0.0 -3.90898841571 0.831109619697 -2.49072366522
168 1 1 0 1.0 0 1.0 0.0 1.65227899109 0.118748968581 1.84751199893
169 1 1 0 1.0 0 1.0 0.0 2.13949481574 0.218636659071 -3.6952400741
170 1 1 0 1.0 0 1.0 0.0 4.5438468272 -3.92536123546 3.65872378175
171 1 1 0 1.0 0 1.0 0.0 2.8849131538 1.9760051978 -0.562368478419
172 1 1 0 1.0 0 1.0 0.0 -4.88211568898 -4.48547363253 2.5612550537
173 1 1 0 1.0 0 1.0 0.0 3.96175240513 -2.40125023667 -4.93413145731
174 1 1 0 1.0 0 1.0 0.0 -3.69158549375 4.2628878677 4.50353962656
175 1 1 0 1.0 0 1.0 0.0 0.187700403311 -3.62452346739 2.7674340764
176 1 1 0 1.0 0 1.0 0.0 -1.49446830706 4.02701861714 -1.28590940885
177 1 1 0 1.0 0 1.0 0.0 3.14826019112 2.33204548574 1.79160788665
178 1 1 0 1.0 0 1.0 0.0 2.4192489138 1.628823444 0.938657918693
179 1 1 0 1.0 0 1.0 0.0 -2.63769296752 -1.55948450335 -2.65250009036
180 1 1 0 1.0 0 1.0 0.0 -1.72735678493 -1.98527516591 -1.57444748079
181 1 1 0 1.0 0 1.0 0.0 2.34858050342 2.7900602978 4.94454490625
182 1 1 0 1.0 0 1.0 0.0 0.519972807963 -3.1656184365 0.303391772531
183 1 1 0 1.0 0 1.0 0.0 2.53585274487 0.556655659831 2.4884137233
184 1 1 0 1.0 0 1.0 0.0 3.1817210103 -3.7893750632 -4.68699466429
185 1 1 0 1.0 0 1.0 0.0 2.31435356706 1.27797193574 -0.724710644204
186 1 1 0 1.0 0 1.0 0.0 -0.133246399828 -4.64995252481 -3.95929904454
187 1 1 0 1.0 0 1.0 0.0 1.25337763685 -2.8947591695 -4.86718339511
188 1 1 0 1.0 0 1.0 0.0 -2.20020575052 1.28192094907 4.14454656998
189 1 1 0 1.0 0 1.0 0.0 -4.07040322238 -2.32877400693 3.20103821143
190 1 1 0 1.0 0 1.0 0.0 0.124728864698 -0.161309245059 1.74425558751
191 1 1 0 1.0 0 1.0 0.0 2.60795833047 4.849177294 1.36242509523
192 1 1 0 1.0 0 1.0 0.0 -3.24202814766 2.1768041495 2.51822882543
193 1 1 0 1.0 0 1.0 0.0 -3.19409883848 2.14698983239 -0.141288347662
194 1 1 0 1.0 0 1.0 0.0 -4.22499806714 -3.52121466047 -4.53599784778
195 1 1 0 1.0 0 1.0 0.0 -2.92534292135 -1.37785444311 -3.1937012213
196 1 1 0 1.0 0 1.0 0.0 2.56713652643 -3.39483742736 -4.51208184843
197 1 1 0 1.0 0 1.0 0.0 4.4859113821 0.0819415813228 4.79095302852
198 1 1 0 1.0 0 1.0 0.0 -1.94746641376 0.56800092895 -1.11519402477
199 1 1 0 1.0 0 1.0 0.0 -3.32233571187 2.42887369829 -2.90686929169
200 1 1 0 1.0 0 1.0 0.0 -4.09203321652 2.40349512069 2.03595379058
201 1 1 0 1.0 0 1.0 0.0 -3.02955539198 0.841747580101 3.93771953197
202 1 1 0 1.0 0 1.0 0.0 0.559933475251 -3.17244451621 4.77167269193
203 1 1 0 1.0 0 1.0 0.0 -0.707756228567 1.51743453804 -1.43872964598
204 1 1 0 1.0 0 1.0 0.0 3.84276938401 1.730115176 4.7999153258
205 1 1 0 1.0 0 1.0 0.0 -1.18244605003 3.04004131769 3.31532183218
206 1 1 0 1.0 0 1.0 0.0 3.62028912998 -3.08531182918 3.32794890518
207 1 1 0 1.0 0 1.0 0.0 -4.26797750753 4.26214488709 -2.66758444268
208 1 1 0 1.0 0 1.0 0.0 3.628411532 -2.89569402535 -2.37177152845
209 1 1 0 1.0 0 1.0 0.0 0.229747111626 2.45576747469 -2.7343415561
210 1 1 0 1.0 0 1.0 0.0 -3.47866492169 1.60900847632 2.34068018178
211 1 1 0 1.0 0 1.0 0.0 1.35605317068 -0.644260418229 -2.14470239248
212 1 1 0 1.0 0 1.0 0.0 0.91940861849 1.15597423174 -1.47503333947
213 1 1 0 1.0 0 1.0 0.0 -3.48478897162 4.32588238807 -2.11168305618
214 1 1 0 1.0 0 1.0 0.0 -2.94105776552 4.85519950517 -2.61608216051
215 1 1 0 1.0 0 1.0 0.0 0.671356469813 -1.13839006486 0.875961723764
216 1 1 0 1.0 0 1.0 0.0 4.79493859709 -2.32905683195 4.24583029082
217 1 1 0 1.0 0 1.0 0.0 0.248177287173 -0.302606689815 2.59942431754
218 1 1 0 1.0 0 1.0 0.0 -0.407464419008 0.637202896964 4.27361226857
219 1 1 0 1.0 0 1.0 0.0 0.323783984748 -0.208123652576 0.166552507196
220 1 1 0 1.0 0 1.0 0.0 -4.00025628746 0.857837823961 -0.707778735484
221 1 1 0 1.0 0 1.0 0.0 3.12647932239 -2.3930277009 -4.72931522291
222 1 1 0 1.0 0 1.0 0.0 4.46477734062 -0.586559859095 4.35886257103
223 1 1 0 1.0 0 1.0 0.0 -4.40102952303 3.72106469401 -2.14299475797
224 1 1 0 1.0 0 1.0 0.0 -2.60108380365 -0.209670207994 1.33929728537
225 1 1 0 1.0 0 1.0 0.0 1.92818118943 -1.00818393242 -0.731948954704
226 1 1 0 1.0 0 1.0 0.0 2.95685321524 -3.56986009909 -3.61784458533
227 1 1 0 1.0 0 1.0 0.0 1.27417118256 -3.27829045234 1.03939273911
228 1 1 0 1.0 0 1.0 0.0 -3.68972109327 4.86596457891 -4.24879647588
229 1 1 0 1.0 0 1.0 0.0 -2.50367714665 -0.562919624672 -3.45299827285
230 1 1 0 1.0 0 1.0 0.0 0.284220724387 4.53855217178 3.39292669505
231 1 1 0 1.0 0 1.0 0.0 1.567480527 1.06403691892 0.657145913913
232 1 1 0 1.0 0 1.0 0.0 4.48155102152 1.66059674024 0.419761624875
233 1 1 0 1.0 0 1.0 0.0 1.60525041739 -1.31229415175 3.43430113406
234 1 1 0 1.0 0 1.0 0.0 2.30555082597 -2.13632529173 4.48337716003
235 1 1 0 1.0 0 1.0 0.0 1.81873225696 -3.63892328434 -0.571464726976
236 1 1 0 1.0 0 1.0 0.0 1.58723227797 4.72732234588 -2.32327532062
237 1 1 0 1.0 0 1.0 0.0 1.40428843272 -3.19007365144 2.69657416496
238 1 1 0 1.0 0 1.0 0.0 2.01298636054 -2.19142799764 -1.77527518816
239 1 1 0 1.0 0 1.0 0.0 -0.960187334237 -2.79221685664 -3.28745839476
240 1 1 0 1.0 0 1.0 0.0 1.90509859628 3.93971790157 -1.77121765221
241 1 1 0 1.0 0 1.0 0.0 1.63565594227 4.7331165889 -3.81823600046
242 1 1 0 1.0 0 1.0 0.0 -0.199857777204 3.56443593222 0.988180378338
243 1 1 0 1.0 0 1.0 0.0 3.16691851004 2.20091077228 -4.68823574128
244 1 1 0 1.0 0 1.0 0.0 -4.99400972529 1.56535943228 4.67424501421
245 1 1 0 1.0 0 1.0 0.0 0.107594917931 1.63139699396 -2.68359594881
246 1 1 0 1.0 0 1.0 0.0 -4.96493000485 -0.767705788348 4.5686295871
247 1 1 0 1.0 0 1.0 0.0 1.67169577156 1.23199773581 0.194150274164
248 1 1 0 1.0 0 1.0 0.0 -3.30474678724 -2.14837230245 -1.85315921698
249 1 1 0 1.0 0 1.0 0.0 1.103264913 -4.01766602513 -0.951924731372
250 1 1 0 1.0 0 1.0 0.0 -3.56104367821 -3.64272323252 -3.9999413858
251 1 1 0 1.0 0 1.0 0.0 1.65798656944 -3.90306582789 4.87657215578
252 1 1 0 1.0 0 1.0 0.0 4.50126077726 0.709481102791 4.1216008271
253 1 1 0 1.0 0 1.0 0.0 -0.193021964488 0.9592302274 -4.3023050464
254 1 1 0 1.0 0 1.0 0.0 -1.26417221783 -4.15165879723 3.2937111809
255 1 1 0 1.0 0 1.0 0.0 -3.17605986369 -0.482754012133 4.2209210278
256 1 1 0 1.0 0 1.0 0.0 1.64093491195 -4.95832133711 2.76757712135
257 1 1 0 1.0 0 1.0 0.0 2.89988642542 2.09469627945 4.43123871823
258 1 1 0 1.0 0 1.0 0.0 -1.78152505677 -1.07415765077 -1.19454015045
259 1 1 0 1.0 0 1.0 0.0 -0.413481903517 4.78624245452 4.55682613204
260 1 1 0 1.0 0 1.0 0.0 -4.58726575489 -4.094313506 3.814320944
261 1 1 0 1.0 0 1.0 0.0 0.390201772131 -2.43458070313 -0.672630327271
262 1 1 0 1.0 0 1.0 0.0 -1.16651872576 2.75030442756 -1.73672855461
263 1 1 0 1.0 0 1.0 0.0 -4.96662174127 3.00035656526 -4.79344200365
264 1 1 0 1.0 0 1.0 0.0 -4.95499540833 0.257004908476 -1.26187480989
265 1 1 0 1.0 0 1.0 0.0 3.59430902429 -1.69415536654 2.21396728673
266 1 1 0 1.0 0 1.0 0.0 3.69570826214 3.91373326275 -1.18576860282
267 1 1 0 1.0 0 1.0 0.0 -1.87438822226 2.10988236754 -1.56376480415
268 1 1 0 1.0 0 1.0 0.0 3.89140765739 -2.61278856274 -3.17229092648
269 1 1 0 1.0 0 1.0 0.0 -3.25797880534 1.20338343882 -4.75334865136
270 1 1 0 1.0 0 1.0 0.0 2.09387468253 3.97641400532 4.10770275044
271 1 1 0 1.0 0 1.0 0.0 -0.0797715480761 2.44735734013 -0.0135568349605
272 1 1 0 1.0 0 1.0 0.0 3.28648761674 -3.06708800017 -0.14002979212
273 1 1 0 1.0 0 1.0 0.0 2.11828888448 -0.439534613465 2.75907105068
274 1 1 0 1.0 0 1.0 0.0 4.09942410888 2.57446002188 -3.88999244511
275 1 1 0 1.0 0 1.0 0.0 -3.45769291171 1.58080326976 -1.50527059802
276 1 1 0 1.0 0 1.0 0.0 -4.21690155257 0.794801246371 -3.8736624128
277 1 1 0 1.0 0 1.0 0.0 -1.06098936764 3.58744366907 4.72416087876
278 1 1 0 1.0 0 1.0 0.0 4.61479488062 0.438859536713 2.10925799962
279 1 1 0 1.0 0 1.0 0.0 1.0330186503 -3.51267812339 -4.11469445635
280 1 1 0 1.0 0 1.0 0.0 -2.80872292908 0.452496965042 -2.83338481024
281 1 1 0 1.0 0 1.0 0.0 1.66698649118 -3.82345903614 -4.04849521492
282 1 1 0 1.0 0 1.0 0.0 -0.297607830445 2.34967957365 -0.772398581647
283 1 1 0 1.0 0 1.0 0.0 -3.43684915854 -0.0584596730762 -4.38548450992
284 1 1 0 1.0 0 1.0 0.0 -0.028558914376 2.97955601001 3.76843710311
285 1 1 0 1.0 0 1.0 0.0 0.948637341197 2.16869825373 4.19478680892
286 1 1 0 1.0 0 1.0 0.0 -4.99931539596 1.88912711422 0.231712922498
287 1 1 0 1.0 0 1.0 0.0 -1.4246692958 4.56319035038 -0.892313721682
288 1 1 0 1.0 0 1.0 0.0 -1.51140275655 -4.72278392135 -3.14066461641
289 1 1 0 1.0 0 1.0 0.0 4.00032955051 -1.83024954777 4.68312878693
290 1 1 0 1.0 0 1.0 0.0 3.79693857688 -3.59105810367 3.3451176212
291 1 1 0 1.0 0 1.0 0.0 -4.64623137765 3.24747757729 -0.703294728018
292 1 1 0 1.0 0 1.0 0.0 1.37963833288 -2.05054393186 -4.21436814777
293 1 1 0 1.0 0 1.0 0.0 2.29803382723 0.203647018691 2.74913750113
294 1 1 0 1.0 0 1.0 0.0 -4.96843562393 -1.55585919064 4.03910094591
295 1 1 0 1.0 0 1.0 0.0 -2.55683299835 -2.60899111747 -0.157034579774
296 1 1 0 1.0 0 1.0 0.0 2.40465384511 -2.25156667691 1.26526856701
297 1 1 0 1.0 0 1.0 0.0 -2.21686525221 0.99270666156 0.95303806805
298 1 1 0 1.0 0 1.0 0.0 -3.57215602306 -2.02187876393 -0.694331179107
299 1 1 0 1.0 0 1.0 0.0 1.52726967936 2.87305210745 3.6217003529
300 1 1 0 1.0 0 1.0 0.0 -2.08227051227 1.45013032775 1.93072239684
301 1 1 0 1.0 0 1.0 0.0 -4.50086130057 3.93474475082 -4.69426919145
302 1 1 0 1.0 0 1.0 0.0 -0.788681176691 -3.70459782521 -3.20263455295
303 1 1 0 1.0 0 1.0 0.0 -2.84162495544 -0.96752638246 2.55028724245
304 1 1 0 1.0 0 1.0 0.0 4.00270243784 -4.1936155818 0.880471849146
305 1 1 0 1.0 0 1.0 0.0 -2.83924597375 1.32382930211 -4.09359244669
306 1 1 0 1.0 0 1.0 0.0 -2.21882931456 4.22620154275 2.11976307852
307 1 1 0 1.0 0 1.0 0.0 -4.03596017509 3.67415931942 3.17869894753
308 1 1 0 1.0 0 1.0 0.0 -2.32462246356 -4.89623998875 -1.63621669111
309 1 1 0 1.0 0 1.0 0.0 -2.53008920592 -1.75678116612 -1.75527213724
310 1 1 0 1.0 0 1.0 0.0 4.80044983859 3.98139538172 -0.824167582637
311 1 1 0 1.0 0 1.0 0.0 -3.26960073385 -0.337335074071 0.854881710642
312 1 1 0 1.0 0 1.0 0.0 0.449460909337 2.18816403082 -0.731689313539
313 1 1 0 1.0 0 1.0 0.0 2.37779861521 -0.239164846088 -0.974706516798
314 1 1 0 1.0 0 1.0 0.0 2.64187008672 1.60251259556 3.00159289981
315 1 1 0 1.0 0 1.0 0.0 -1.32173938306 -0.121500295568 1.78332392913
316 1 1 0 1.0 0 1.0 0.0 -2.66907549833 4.39150398456 -4.01138160818
317 1 1 0 1.0 0 1.0 0.0 -0.19592427625 -4.84444164728 -0.435343079964
318 1 1 0 1.0 0 1.0 0.0 3.22470451 3.5142443639 4.78291931798
319 1 1 0 1.0 0 1.0 0.0 -3.95180572378 -0.445577313622 0.537662913976
320 1 1 0 1.0 0 1.0 0.0 -4.75216004372 -3.70334712781 -3.85476699363
321 1 1 0 1.0 0 1.0 0.0 1.48356157069 1.8105747691 3.4364511158
322 1 1 0 1.0 0 1.0 0.0 2.61716527841 4.0208322279 2.25271377236
323 1 1 0 1.0 0 1.0 0.0 -0.42282248721 2.16691982558 -0.999571248853
324 1 1 0 1.0 0 1.0 0.0 3.70730055338 -4.43619964964 -2.26569096851
325 1 1 0 1.0 0 1.0 0.0 -2.48864208432 -0.383082091875 -3.70267570393
326 1 1 0 1.0 0 1.0 0.0 2.62056889325 -3.61675336689 -1.1922355159
327 1 1 0 1.0 0 1.0 0.0 -0.750142754819 -0.277124350026 0.287645146558
328 1 1 0 1.0 0 1.0 0.0 -3.75729051525 0.82307800551 -4.20816644325
329 1 1 0 1.0 0 1.0 0.0 1.38224215338 2.58444251005 0.700145062056
330 1 1 0 1.0 0 1.0 0.0 3.45697320981 0.64830303243 1.24130993366
331 1 1 0 1.0 0 1.0 0.0 -0.406985487315 3.03757991533 -2.53599682547
332 1 1 0 1.0 0 1.0 0.0 2.46455387384 -0.947310757728 2.05415259415
333 1 1 0 1.0 0 1.0 0.0 0.479322666298 -0.335311308165 1.37000142015
334 1 1 0 1.0 0 1.0 0.0 3.43155527993 4.76560891905 0.388448773274
335 1 1 0 1.0 0 1.0 0.0 3.30427255626 2.83373321357 -1.89518646081
336 1 1 0 1.0 0 1.0 0.0 -1.91475360127 3.82096099423 3.84845499159
337 1 1 0 1.0 0 1.0 0.0 -1.31494379012 2.09156727154 -3.89142182646
338 1 1 0 1.0 0 1.0 0.0 -3.31856063877 0.0110488217654 -4.96520524041
339 1 1 0 1.0 0 1.0 0.0 -2.52828574394 0.55449234459 -3.79820277931
340 1 1 0 1.0 0 1.0 0.0 -0.976225959827 -2.87890364831 -3.28049730727
341 1 1 0 1.0 0 1.0 0.0 -1.99618710812 2.96630552204 -4.10437674863
342 1 1 0 1.0 0 1.0 0.0 -3.45072135154 4.6364088692 -2.70506602944
343 1 1 0 1.0 0 1.0 0.0 -2.92787614615 -1.42326156855 -0.0259025917882
344 1 1 0 1.0 0 1.0 0.0 -3.98264531911 0.942891005299 -0.333078435506
345 1 1 0 1.0 0 1.0 0.0 -2.54795898664 3.64243524988 2.42039233528
346 1 1 0 1.0 0 1.0 0.0 1.58523306684 -1.93424444974 1.50762753225
347 1 1 0 1.0 0 1.0 0.0 -2.95459945917 -3.82730954638 -0.441517016985
348 1 1 0 1.0 0 1.0 0.0 -1.6448965834 -4.04991414529 -0.629251787436
349 1 1 0 1.0 0 1.0 0.0 3.53961264297 4.4620489251 0.935665992575
350 1 1 0 1.0 0 1.0 0.0 0.872414935184 2.06104008251 -1.70108265706
351 1 1 0 1.0 0 1.0 0.0 2.60737321663 -0.474250161629 1.95631398927
352 1 1 0 1.0 0 1.0 0.0 -4.71524479945 -3.0896882984 4.28130084804
353 1 1 0 1.0 0 1.0 0.0 -1.34440526704 1.12364027089 0.703480356998
354 1 1 0 1.0 0 1.0 0.0 2.91025286097 -0.770757913101 4.26063480393
355 1 1 0 1.0 0 1.0 0.0 -1.18763845745 -3.24677436101 0.493759592964
356 1 1 0 1.0 0 1.0 0.0 -1.22248023128 -1.42886522027 0.601044982221
357 1 1 0 1.0 0 1.0 0.0 2.65626554461 -0.0414741194209 -0.60889370897
358 1 1 0 1.0 0 1.0 0.0 3.51330495977 -3.77838447158 1.60815819395
359 1 1 0 1.0 0 1.0 0.0 4.82096046534 -4.95127150527 1.12848745024
360 1 1 0 1.0 0 1.0 0.0 0.752855903896 1.99418435537 -4.1362910462
361 1 1 0 1.0 0 1.0 0.0 0.204181267886 -4.89641751959 2.9290896274
362 1 1 0 1.0 0 1.0 0.0 3.80054416471 1.0093198041 4.90091049227
363 1 1 0 1.0 0 1.0 0.0 -0.828902940224 2.25504540981 1.14048284313
364 1 1 0 1.0 0 1.0 0.0 3.94246761294 0.283861779876 0.807753949045
365 1 1 0 1.0 0 1.0 0.0 -3.07392247253 2.91279776365 1.81058100331
366 1 1 0 1.0 0 1.0 0.0 1.80551814649 4.27084639851 4.21365373535
367 1 1 0 1.0 0 1.0 0.0 2.53270268521 1.02362896116 -3.09005631652
368 1 1 0 1.0 0 1.0 0.0 0.565237508008 -2.20075208535 1.27415945825
369 1 1 0 1.0 0 1.0 0.0 -3.95410427165 -0.613992467431 0.631337947983
370 1 1 0 1.0 0 1.0 0.0 -2.67206066809 -4.54477741835 -2.04768499575
371 1 1 0 1.0 0 1.0 0.0 -3.12030412452 -0.561417838794 1.73613140354
372 1 1 0 1.0 0 1.0 0.0 4.59418748903 -4.03964792937 -0.592421661426
373 1 1 0 1.0 0 1.0 0.0 -4.30407372329 -2.6968137426 1.66980742895
374 1 1 0 1.0 0 1.0 0.0 -2.53653643033 -4.60773062776 -0.851631285058
375 1 1 0 1.0 0 1.0 0.0 -3.54207218165 -2.71272136389 2.25801065686
376 1 1 0 1.0 0 1.0 0.0 3.77051064168 -0.637534601263 0.708101872494
377 1 1 0 1.0 0 1.0 0.0 -4.71995494744 1.23666681469 -0.388829309701
378 1 1 0 1.0 0 1.0 0.0 -3.20548102665 -0.873340536517 2.0127300142
379 1 1 0 1.0 0 1.0 0.0 2.73725466601 2.47965470092 2.32615993259
380 1 1 0 1.0 0 1.0 0.0 0.612747056715 1.79866962552 4.76661155081
381 1 1 0 1.0 0 1.0 0.0 -0.348888900846 1.26847588168 0.0499350240963
382 1 1 0 1.0 0 1.0 0.0 4.94884901009 -1.27809104731 -0.76750712085
383 1 1 0 1.0 0 1.0 0.0 2.2360431838 4.21398866188 4.36945014332
384 1 1 0 1.0 0 1.0 0.0 -1.17515308468 2.53020120464 3.59108230423
385 1 1 0 1.0 0 1.0 0.0 -0.143817778364 -1.80571465159 1.38574335952
386 1 1 0 1.0 0 1.0 0.0 1.3774816563 -4.34456950798 -1.21368347949
387 1 1 0 1.0 0 1.0 0.0 4.13144397727 0.694723477469 0.317741484322
388 1 1 0 1.0 0 1.0 0.0 2.03499087161 4.27569520156 -3.75918252051
389 1 1 0 1.0 0 1.0 0.0 -2.83398316883 3.03773873358 -0.871723025476
390 1 1 0 1.0 0 1.0 0.0 -4.22088094761 -0.644015484323 -0.911236315939
391 1 1 0 1.0 0 1.0 0.0 -1.7570193748 1.49488985081 -3.21094190342
392 1 1 0 1.0 0 1.0 0.0 -4.34120252739 -3.83598991426 2.62714743436
393 1 1 0 1.0 0 1.0 0.0 0.962882077692 -3.5177888445 4.1512818337
394 1 1 0 1.0 0 1.0 0.0 3.75817786869 -4.71164892466 -3.07206168267
395 1 1 0 1.0 0 1.0 0.0 -0.8286008853 -3.14761295442 -1.86133793753
396 1 1 0 1.0 0 1.0 0.0 -0.773851968049 -3.31867049997 1.34462726027
397 1 1 0 1.0 0 1.0 0.0 -3.5015316632 -0.476747867835 1.0952754335
398 1 1 0 1.0 0 1.0 0.0 1.00647854048 2.19193805721 3.07772754088
399 1 1 0 1.0 0 1.0 0.0 -1.80159692768 -2.94079535694 -4.04262021558
400 1 1 0 1.0 0 1.0 0.0 -0.240684474331 0.430576459729 1.62722327245
401 1 1 0 1.0 0 1.0 0.0 4.05068805147 0.848603915682 -2.41848981402
402 1 1 0 1.0 0 1.0 0.0 2.18828956152 4.10182197033 4.4080855074
403 1 1 0 1.0 0 1.0 0.0 -0.393841366937 -2.76993432362 -0.771932612011
404 1 1 0 1.0 0 1.0 0.0 2.7641912259 2.83109302113 -4.30646760798
405 1 1 0 1.0 0 1.0 0.0 1.19055260261 -2.06322040588 4.60928955755
406 1 1 0 1.0 0 1.0 0.0 -3.20613917725 -0.677990977939 -0.919317508135
407 1 1 0 1.0 0 1.0 0.0 1.86627660233 3.06006734554 4.68940360499
408 1 1 0 1.0 0 1.0 0.0 4.86076347993 4.05256007078 -4.14662031166
409 1 1 0 1.0 0 1.0 0.0 -3.75081218503 1.54012308241 -3.60805457607
410 1 1 0 1.0 0 1.0 0.0 0.658761516585 -1.7238835565 -2.98747303116
411 1 1 0 1.0 0 1.0 0.0 -4.81651736128 -3.41748785589 4.03616531775
412 1 1 0 1.0 0 1.0 0.0 -0.329968134557 -3.91480015516 -4.61462757389
413 1 1 0 1.0 0 1.0 0.0 0.755275413019 0.288318338387 -0.279785953027
414 1 1 0 1.0 0 1.0 0.0 2.18235227082 2.07745702559 4.7202799118
415 1 1 0 1.0 0 1.0 0.0 0.200734535454 -3.38661890674 4.15446266084
416 1 1 0 1.0 0 1.0 0.0 2.90243863769 3.61335901865 2.87668867149
417 1 1 0 1.0 0 1.0 0.0 2.42479687237 2.48679380474 -2.50068797311
418 1 1 0 1.0 0 1.0 0.0 1.6312441486 3.54715577253 -1.21889195792
419 1 1 0 1.0 0 1.0 0.0 4.19278154471 -2.63960329382 2.5106590377
420 1 1 0 1.0 0 1.0 0.0 3.75928092856 0.458867734216 3.69517839996
421 1 1 0 1.0 0 1.0 0.0 -4.75986593079 -2.89563067885 1.24135007939
422 1 1 0 1.0 0 1.0 0.0 -1.99562673277 4.72215812235 -4.77912749622
423 1 1 0 1.0 0 1.0 0.0 -2.15435751711 -1.35560707318 1.63903547204
424 1 1 0 1.0 0 1.0 0.0 2.06577055162 -4.97952276605 2.8006904005
425 1 1 0 1.0 0 1.0 0.0 0.306672087862 3.61126226872 0.260245676704
426 1 1 0 1.0 0 1.0 0.0 -1.41425485877 -1.88368433988 -2.37222664427
427 1 1 0 1.0 0 1.0 0.0 2.13368282173 -4.53838597264 -4.23622828952
428 1 1 0 1.0 0 1.0 0.0 0.335308623426 2.42354784165 -4.65748339478
429 1 1 0 1.0 0 1.0 0.0 4.33487654509 -3.37059633053 -1.0635419137
430 1 1 0 1.0 0 1.0 0.0 4.99700390132 -3.51999164609 -0.973445928954
431 1 1 0 1.0 0 1.0 0.0 -0.82754976663 3.06324556958 2.50474611219
432 1 1 0 1.0 0 1.0 0.0 -0.46322004397 4.93999307566 -4.42704514466
433 1 1 0 1.0 0 1.0 0.0 -2.44209962911 3.28754247892 3.11892264605
434 1 1 0 1.0 0 1.0 0.0 3.2329247008 -1.31107793276 -0.84447152286
435 1 1 0 1.0 0 1.0 0.0 -0.564303327356 1.20895239997 3.26687796942
436 1 1 0 1.0 0 1.0 0.0 -2.22315845199 -0.602830892717 0.942743824641
437 1 1 0 1.0 0 1.0 0.0 -4.46075892688 0.93663298364 -2.39915578502
438 1 1 0 1.0 0 1.0 0.0 1.94964199293 2.91371291345 2.77363646454
439 1 1 0 1.0 0 1.0 0.0 -4.27103467562 -4.14228143092 -4.12115414194
440 1 1 0 1.0 0 1.0 0.0 -0.669558773672 -3.76399993245 -0.889189648364
441 1 1 0 1.0 0 1.0 0.0 1.33201959153 4.21353829364 -0.574402402099
442 1 1 0 1.0 0 1.0 0.0 1.83797274407 -0.772307088898 -4.93500297957