Create by autotest system
4096 atoms
2 atom types
-5 5 xlo xhi
-5 5 ylo yhi
-5 5 zlo zhi
Masses

1 1.000794
2 0.0005446169970987488

Atoms

1 1 1 0 1.0 0 1.0 0.0 -0.143627187298 1.25199040099 1.62861987181
2 1 1 0 1.0 0 1.0 0.0 0.530129299881 3.44542839833 -3.08150848258
3 1 1 0 1.0 0 1.0 0.0 -3.74955514896 0.771985652261 -0.58794703369
4 1 1 0 1.0 0 1.0 0.0 -3.57425242446 -3.66965012529 3.50626379274
5 1 1 0 1.0 0 1.0 0.0 -3.81255449742 -2.3391426849 -2.02130955973
6 1 1 0 1.0 0 1.0 0.0 -4.94511772487 -3.27568095918 0.495941850146
7 1 1 0 1.0 0 1.0 0.0 4.70810492416 -1.14111737428 -4.81656130596
8 1 1 0 1.0 0 1.0 0.0 -4.8508811754 0.88248645422 0.426528743523
9 1 1 0 1.0 0 1.0 0.0 0.866961578628 1.67128867728 -4.97152092319
10 1 1 0 1.0 0 1.0 0.0 -1.65403118746 4.96952071868 4.45137012793
11 1 1 0 1.0 0 1.0 0.0 3.94806037361 -4.2270095808 4.3216825011
12 1 1 0 1.0 0 1.0 0.0 3.86054445746 4.64825423203 -3.45977722134
13 1 1 0 1.0 0 1.0 0.0 3.49314894615 -1.85613132844 -2.7022713167
14 1 1 0 1.0 0 1.0 0.0 -0.542068692062 4.22227257881 0.33548082901
15 1 1 0 1.0 0 1.0 0.0 3.51392574035 -1.93048826898 2.92896007361
16 1 1 0 1.0 0 1.0 0.0 3.60513925066 1.7063160391 -4.5915774689
17 1 1 0 1.0 0 1.0 0.0 4.05948315718 2.26669934036 3.0613056246
18 1 1 0 1.0 0 1.0 0.0 -3.82615588991 1.37930040529 1.68137580393
19 1 1 0 1.0 0 1.0 0.0 -3.7545030383 3.99412644655 -3.31271655282
20 1 1 0 1.0 0 1.0 0.0 4.69482509086 -4.06323345846 4.63816034641
21 1 1 0 1.0 0 1.0 0.0 0.766226251798 4.93029243532 3.52805996585
22 1 1 0 1.0 0 1.0 0.0 -3.58644167139 -0.0997634246926 0.673784570172
23 1 1 0 1.0 0 1.0 0.0 -1.38351757942 -2.41610637611 1.63610321153
24 1 1 0 1.0 0 1.0 0.0 -4.63656008079 -4.30931732721 0.319687413794
25 1 1 0 1.0 0 1.0 0.0 -3.73956090485 -0.415906395194 -1.07781627373
26 1 1 0 1.0 0 1.0 0.0 -0.0962378360262 0.0956234595883 -4.74734097955
27 1 1 0 1.0 0 1.0 0.0 -4.76470189998 -1.89978346847 -4.07524285263
28 1 1 0 1.0 0 1.0 0.0 3.82766750831 1.34705268941 -1.14516675605
29 1 1 0 1.0 0 1.0 0.0 3.13250334873 -3.36177747666 1.83548654795
30 1 1 0 1.0 0 1.0 0.0 0.329791419786 -2.85405290574 2.52948225689
31 1 1 0 1.0 0 1.0 0.0 -3.02256192263 -3.210852862 -4.45707722106
32 1 1 0 1.0 0 1.0 0.0 -1.69499177372 1.01721203222 0.834223642385
33 1 1 0 1.0 0 1.0 0.0 1.80281848318 2.33046660721 -2.19162214956
34 1 1 0 1.0 0 1.0 0.0 -1.49526641203 -0.585120814504 -4.99357690276
35 1 1 0 1.0 0 1.0 0.0 -4.34601273596 -1.69989714147 2.88041258588
36 1 1 0 1.0 0 1.0 0.0 -2.3097465901 3.53666917364 -2.14435723655
37 1 1 0 1.0 0 1.0 0.0 1.86128951588 3.12145997435 1.97232500001
38 1 1 0 1.0 0 1.0 0.0 -1.74374811052 2.29608927678 3.66390998765
39 1 1 0 1.0 0 1.0 0.0 -0.134859176597 2.35342104438 4.30107046609
40 1 1 0 1.0 0 1.0 0.0 3.22824303852 4.7407283004 -0.933806047028
41 1 1 0 1.0 0 1.0 0.0 -3.90749795212 -4.60280614051 -2.65076236935
42 1 1 0 1.0 0 1.0 0.0 3.73481065998 -0.802440031803 -0.619679559
43 1 1 0 1.0 0 1.0 0.0 -2.72427418711 -3.95518148206 -2.12355785939
44 1 1 0 1.0 0 1.0 0.0 0.487373280895 -2.78522231248 -0.250580332982
45 1 1 0 1.0 0 1.0 0.0 2.1172730364 0.466478814128 1.24980916353
46 1 1 0 1.0 0 1.0 0.0 -3.43146904972 0.25361125346 2.5168211983
47 1 1 0 1.0 0 1.0 0.0 -2.56437458236 -3.77328480854 -3.92055497755
48 1 1 0 1.0 0 1.0 0.0 3.94686676389 0.636388589474 -1.18970954993
49 1 1 0 1.0 0 1.0 0.0 3.9112577324 -3.98067784425 -2.69339448116
50 1 1 0 1.0 0 1.0 0.0 -3.40411395729 -2.54529488945 3.3742938471
51 1 1 0 1.0 0 1.0 0.0 1.98633799458 -2.3882003414 -3.46354975105
52 1 1 0 1.0 0 1.0 0.0 -0.408285669746 -2.75824227319 -3.00787570716
53 1 1 0 1.0 0 1.0 0.0 1.66366601557 -4.31903838264 -1.95500141185
54 1 1 0 1.0 0 1.0 0.0 -3.57099448659 0.613087046338 -1.43641948989
55 1 1 0 1.0 0 1.0 0.0 -2.67111606898 4.49617417274 -4.73267945845
56 1 1 0 1.0 0 1.0 0.0 -0.327415855005 -3.6807280398 -4.81417037015
57 1 1 0 1.0 0 1.0 0.0 -0.561096913628 4.23007879483 -2.14430675131
58 1 1 0 1.0 0 1.0 0.0 0.128671353431 -2.21052538098 1.98573253075
59 1 1 0 1.0 0 1.0 0.0 1.06510404229 4.01509532869 4.1350362764
60 1 1 0 1.0 0 1.0 0.0 -4.20033454093 -0.478787208444 4.51659525241
61 1 1 0 1.0 0 1.0 0.0 -0.297529724995 -0.039413866779 -2.40396646564
62 1 1 0 1.0 0 1.0 0.0 0.717563949182 2.56827409468 -0.278097939754
63 1 1 0 1.0 0 1.0 0.0 -1.53803674878 -0.715544446631 4.48397363691
64 1 1 0 1.0 0 1.0 0.0 4.45565343465 -4.46454080721 2.53967072156
65 1 1 0 1.0 0 1.0 0.0 4.18707410202 -0.918567106008 -1.17072463916
66 1 1 0 1.0 0 1.0 0.0 1.15585858913 0.241104316351 -3.9435330829
67 1 1 0 1.0 0 1.0 0.0 3.9743722923 -0.70077748855 -1.90626255661
68 1 1 0 1.0 0 1.0 0.0 1.28873627801 0.820090588868 -4.69035325778
69 1 1 0 1.0 0 1.0 0.0 -2.37441754055 -1.06595420126 0.727669544275
70 1 1 0 1.0 0 1.0 0.0 0.561477661333 0.947696068819 2.06691721208
71 1 1 0 1.0 0 1.0 0.0 -4.86342736668 -4.17621991564 -3.46043872236
72 1 1 0 1.0 0 1.0 0.0 -2.77112846212 -4.33417442634 2.21445926747
73 1 1 0 1.0 0 1.0 0.0 -2.60502483007 -0.256049464765 2.80427589283
74 1 1 0 1.0 0 1.0 0.0 3.54947184857 -1.94740763287 2.14607219007
75 1 1 0 1.0 0 1.0 0.0 -1.1868731591 -0.868816310213 -2.82038567666
76 1 1 0 1.0 0 1.0 0.0 -3.45152191666 -4.74039370032 4.931828045
77 1 1 0 1.0 0 1.0 0.0 4.96167117496 -3.13041736941 -4.65073384493
78 1 1 0 1.0 0 1.0 0.0 -2.5292491432 -1.03416253782 -2.62621715137
79 1 1 0 1.0 0 1.0 0.0 1.00315955824 1.82341556811 -1.23922282119
80 1 1 0 1.0 0 1.0 0.0 -3.95196389375 -4.53918680189 3.4634406296
81 1 1 0 1.0 0 1.0 0.0 2.01905523331 1.6240429305 0.0316740552522
82 1 1 0 1.0 0 1.0 0.0 4.08721710334 -0.504103083761 0.41215416315
83 1 1 0 1.0 0 1.0 0.0 -1.49037995131 1.48413280029 -2.52547060814
84 1 1 0 1.0 0 1.0 0.0 0.0577968327167 -1.94709925191 -0.104749722782
85 1 1 0 1.0 0 1.0 0.0 0.395895179044 1.87536245999 4.00085962421
86 1 1 0 1.0 0 1.0 0.0 -4.73005663217 3.60656837748 2.11831924354
87 1 1 0 1.0 0 1.0 0.0 -2.72882043685 -4.83806685854 -1.99411329215
88 1 1 0 1.0 0 1.0 0.0 -1.38240224518 3.46056049948 4.27459109635
89 1 1 0 1.0 0 1.0 0.0 0.0880023808395 -4.90205655875 2.43671888874
90 1 1 0 1.0 0 1.0 0.0 -3.42757989136 -4.36020842748 2.79822326475
91 1 1 0 1.0 0 1.0 0.0 0.801838440981 -3.52945421174 -4.329656994
92 1 1 0 1.0 0 1.0 0.0 -0.4293446735 4.95835443138 2.40562178775
93 1 1 0 1.0 0 1.0 0.0 0.482626602298 3.98967061534 -4.21311908527
94 1 1 0 1.0 0 1.0 0.0 0.095405346433 0.185143501365 -3.58100111185
95 1 1 0 1.0 0 1.0 0.0 -0.992565427406 0.0744350788951 -1.768517
96 1 1 0 1.0 0 1.0 0.0 -1.02787855521 -0.82460683767 -3.48421449266
97 1 1 0 1.0 0 1.0 0.0 0.18234799611 -1.71022266944 1.15846266813
98 1 1 0 1.0 0 1.0 0.0 0.107585645346 3.87405146912 2.39182407348
99 1 1 0 1.0 0 1.0 0.0 4.04134602166 3.24953331136 1.56080182446
100 1 1 0 1.0 0 1.0 0.0 -0.87919559979 -2.8767440958 0.69343754061
101 1 1 0 1.0 0 1.0 0.0 -1.72186311548 -2.53384403495 0.246251422362
102 1 1 0 1.0 0 1.0 0.0 3.77536513925 -2.70855261513 -1.41565799654
103 1 1 0 1.0 0 1.0 0.0 -2.7586694697 -3.43990746234 1.41503844587
104 1 1 0 1.0 0 1.0 0.0 3.28680674004 4.47418855775 -0.0136949496961
105 1 1 0 1.0 0 1.0 0.0 2.26475340166 1.01671471915 1.51795781628
106 1 1 0 1.0 0 1.0 0.0 3.18833812493 3.30528829559 0.838962993317
107 1 1 0 1.0 0 1.0 0.0 -4.45921779659 -3.89592447534 3.62229627129
108 1 1 0 1.0 0 1.0 0.0 4.30442008583 4.13827154685 -3.00432460743
109 1 1 0 1.0 0 1.0 0.0 1.63480894856 3.31296512748 -1.2886531032
110 1 1 0 1.0 0 1.0 0.0 3.07058683541 1.61130889505 3.52148131812
111 1 1 0 1.0 0 1.0 0.0 2.43624545125 0.996403938903 0.769037328176
112 1 1 0 1.0 0 1.0 0.0 -0.824668212449 -4.53780520157 -2.66014497126
113 1 1 0 1.0 0 1.0 0.0 0.910819840729 2.2508790989 1.51338596164
114 1 1 0 1.0 0 1.0 0.0 -0.226894502991 1.23420877441 0.535112757757
115 1 1 0 1.0 0 1.0 0.0 4.34750961705 0.892836526752 1.3180271888
116 1 1 0 1.0 0 1.0 0.0 3.06904112104 2.42079678716 0.185788710672
117 1 1 0 1.0 0 1.0 0.0 3.93943715366 1.47950044044 -0.0542027876436
118 1 1 0 1.0 0 1.0 0.0 -2.26708032482 -2.75358763082 1.25401352571
119 1 1 0 1.0 0 1.0 0.0 -4.92472902674 3.81323528096 -3.07341867567
120 1 1 0 1.0 0 1.0 0.0 -4.36755489598 3.17164213692 -4.3377951182
121 1 1 0 1.0 0 1.0 0.0 -4.9551148 -4.60338849292 2.74978030232
122 1 1 0 1.0 0 1.0 0.0 3.53839495402 -0.0682124723316 -3.11351528638
123 1 1 0 1.0 0 1.0 0.0 -3.36695982932 1.68836175206 1.57129873228
124 1 1 0 1.0 0 1.0 0.0 0.812664932195 -0.567140517194 -0.606863846851
125 1 1 0 1.0 0 1.0 0.0 -3.3608903452 -0.529524194213 -3.09771042993
126 1 1 0 1.0 0 1.0 0.0 -3.3609232097 -1.86863058635 4.23413710413
127 1 1 0 1.0 0 1.0 0.0 -0.0185953802696 0.213848491373 1.21602444314
128 1 1 0 1.0 0 1.0 0.0 3.9229915371 -1.02212330581 4.74714844215
129 1 1 0 1.0 0 1.0 0.0 2.81341338736 -0.0609212275636 -1.56163410494
130 1 1 0 1.0 0 1.0 0.0 -2.10882922166 1.40396741339 0.775330585017
131 1 1 0 1.0 0 1.0 0.0 2.82639677675 -3.51087128878 -3.34387430295
132 1 1 0 1.0 0 1.0 0.0 3.36565552192 -4.57480078904 -1.34343371929
133 1 1 0 1.0 0 1.0 0.0 3.39811885797 3.75618172423 -1.59680726883
134 1 1 0 1.0 0 1.0 0.0 3.80805619027 -1.82472062429 -4.35344465669
135 1 1 0 1.0 0 1.0 0.0 4.29483853444 3.12954049985 -2.87455522001
136 1 1 0 1.0 0 1.0 0.0 3.69316601196 2.38145827127 4.57454663155
137 1 1 0 1.0 0 1.0 0.0 0.625974676025 4.7555495087 -2.5730856519
138 1 1 0 1.0 0 1.0 0.0 0.202356207808 -4.45177177084 1.28136955573
139 1 1 0 1.0 0 1.0 0.0 2.51677808338 0.890308693467 3.53194905279
140 1 1 0 1.0 0 1.0 0.0 -1.59193065805 4.93631639569 -1.63195506764
141 1 1 0 1.0 0 1.0 0.0 2.52869767834 -1.61760453871 3.77487433743
142 1 1 0 1.0 0 1.0 0.0 4.09093643554 -1.07899035074 -1.80216913864
143 1 1 0 1.0 0 1.0 0.0 3.46672678718 -1.29651461694 0.22634435218
144 1 1 0 1.0 0 1.0 0.0 3.35311053191 2.65951534914 2.19138939259
145 1 1 0 1.0 0 1.0 0.0 -2.86698201393 1.2551152583 3.53488714602
146 1 1 0 1.0 0 1.0 0.0 0.672613877005 0.427185540955 3.79442425643
147 1 1 0 1.0 0 1.0 0.0 -3.11487662139 3.34565543804 -4.37013176882
148 1 1 0 1.0 0 1.0 0.0 1.72242544066 3.41109198043 0.844355310341
149 1 1 0 1.0 0 1.0 0.0 -1.538462979 3.93306856393 1.77176449243
150 1 1 0 1.0 0 1.0 0.0 2.9459872397 -1.40293258728 -0.82093873322
151 1 1 0 1.0 0 1.0 0.0 -2.30900504496 -1.55684676491 3.44823215664
152 1 1 0 1.0 0 1.0 0.0 -3.54760981607 4.45699690799 2.47324369097
153 1 1 0 1.0 0 1.0 0.0 -1.93134784001 4.9238994475 0.83358037956
154 1 1 0 1.0 0 1.0 0.0 -1.94367635336 4.37044965609 2.58870429815
155 1 1 0 1.0 0 1.0 0.0 0.863021612489 -3.84657989015 1.80272699448
156 1 1 0 1.0 0 1.0 0.0 0.609368981972 1.06085944583 2.89276141183
157 1 1 0 1.0 0 1.0 0.0 -3.88056551288 2.27856111226 1.21736800329
158 1 1 0 1.0 0 1.0 0.0 -1.22805378552 -3.83303866242 -1.39550586616
159 1 1 0 1.0 0 1.0 0.0 -3.12798468347 -3.41074222298 3.7793379581
160 1 1 0 1.0 0 1.0 0.0 2.41345769284 -4.6206969541 -1.55589957043
161 1 1 0 1.0 0 1.0 0.0 4.80493589412 -1.57032565962 -4.08864132795
162 1 1 0 1.0 0 1.0 0.0 1.47392855279 1.08418011553 -3.38705261903
163 1 1 0 1.0 0 1.0 0.0 -2.1702810039 1.11410371335 4.99157833327
164 1 1 0 1.0 0 1.0 0.0 -0.224709994672 1.37383010984 -1.52080490977
165 1 1 0 1.0 0 1.0 0.0 2.88407077047 0.105902878076 2.61940284837
166 1 1 0 1.0 0 1.0 0.0 -2.41471505057 -1.94851910269 -2.08754660445
167 1 1 0 1.0 0 1.0 0.0 -0.785783529422 4.05549089667 4.07031717119
168 1 1 0 1.0 0 1.0 0.0 -3.43103827115 -2.99332502167 2.70532459511
169 1 1 0 1.0 0 1.0 0.0 0.895161293571 0.310559655552 1.68115856935
170 1 1 0 1.0 0 1.0 0.0 4.72246691359 -4.8277737686 -0.696253266857
171 1 1 0 1.0 0 1.0 0.0 4.63491467261 -4.01976447278 4.99191215023
172 1 1 0 1.0 0 1.0 0.0 -1.93574025545 1.18724334513 -4.52719892508
173 1 1 0 1.0 0 1.0 0.0 0.806736317071 4.29905747032 1.80226495996
174 1 1 0 1.0 0 1.0 0.0 -0.927991587172 0.112261725772 -0.44234715849
175 1 1 0 1.0 0 1.0 0.0 2.80115754688 -1.82023284237 4.54541966671
176 1 1 0 1.0 0 1.0 0.0 -4.04607678584 0.399609912923 2.77243050301
177 1 1 0 1.0 0 1.0 0.0 -0.245893129733 4.66430537911 -1.11435784524
178 1 1 0 1.0 0 1.0 0.0 -0.102929843384 -3.66942599639 -3.65024126394
179 1 1 0 1.0 0 1.0 0.0 0.609164283499 4.30351255945 -0.885109067992
180 1 1 0 1.0 0 1.0 0.0 4.25791550149 -3.92967708462 4.55541000565
181 1 1 0 1.0 0 1.0 0.0 3.9305739693 -3.33775520904 2.70433226687
182 1 1 0 1.0 0 1.0 0.0 -1.00376176161 0.714923500341 -3.52840841542
183 1 1 0 1.0 0 1.0 0.0 -1.31100811371 4.72431802396 -3.72092536645
184 1 1 0 1.0 0 1.0 0.0 2.77635605854 1.55470368179 -1.76304648409
185 1 1 0 1.0 0 1.0 0.0 0.526236910976 -4.18001824921 4.39706946827
186 1 1 0 1.0 0 1.0 0.0 1.1119746414 -0.214837613429 0.50313355248
187 1 1 0 1.0 0 1.0 0.0 -1.46263375038 -3.59700205819 0.381954955264
188 1 1 0 1.0 0 1.0 0.0 3.00145320626 -1.75744365417 -1.50919833694
189 1 1 0 1.0 0 1.0 0.0 0.249102237835 -0.0265258466779 -1.34639911656
190 1 1 0 1.0 0 1.0 0.0 -1.30560958094 4.30524228435 -0.400646493638
191 1 1 0 1.0 0 1.0 0.0 2.13314087152 2.87483727115 0.571702878885
192 1 1 0 1.0 0 1.0 0.0 -2.95267050887 -0.497053168722 -2.5421616556
193 1 1 0 1.0 0 1.0 0.0 -0.747351340088 -1.36694141206 -0.626066301607
194 1 1 0 1.0 0 1.0 0.0 0.691721373331 4.88553894627 2.27264480097
195 1 1 0 1.0 0 1.0 0.0 0.16923817716 -3.87964758365 -3.24498042834
196 1 1 0 1.0 0 1.0 0.0 0.48472483422 4.03944995377 2.69353656928
197 1 1 0 1.0 0 1.0 0.0 -4.67267172937 -2.79605378163 -1.44933764279
198 1 1 0 1.0 0 1.0 0.0 0.165682511888 -1.03703214188 -2.00512788705
199 1 1 0 1.0 0 1.0 0.0 -0.232643308032 -4.66110768361 -0.481365937087
200 1 1 0 1.0 0 1.0 0.0 4.17681384079 1.1883991113 4.95123423517
201 1 1 0 1.0 0 1.0 0.0 0.585924893419 0.613784030068 2.18269427968
202 1 1 0 1.0 0 1.0 0.0 4.01673420568 3.29414772613 -3.08721576498
203 1 1 0 1.0 0 1.0 0.0 -0.805435865704 0.351294014147 -1.7002874702
204 1 1 0 1.0 0 1.0 0.0 1.12704454157 -0.390726686213 2.27269387384
205 1 1 0 1.0 0 1.0 0.0 3.12535159023 0.124371200512 -0.264609103267
206 1 1 0 1.0 0 1.0 0.0 4.88521639965 0.441141288863 2.67259943048
207 1 1 0 1.0 0 1.0 0.0 -2.71461959666 1.19383161143 -4.14123313238
208 1 1 0 1.0 0 1.0 0.0 -2.49993187516 4.58545006096 -2.10760933406
209 1 1 0 1.0 0 1.0 0.0 -2.93887617299 4.8878341021 3.80599310994
210 1 1 0 1.0 0 1.0 0.0 3.08800834107 0.767424531564 -3.16034845058
211 1 1 0 1.0 0 1.0 0.0 -1.42476256565 -4.58153611645 0.0336307618332
212 1 1 0 1.0 0 1.0 0.0 0.664743008483 4.72324891834 -1.98600972335
213 1 1 0 1.0 0 1.0 0.0 4.97829835784 -2.61513548756 -3.906994553
214 1 1 0 1.0 0 1.0 0.0 -4.92552869869 3.28095310011 1.34098654241
215 1 1 0 1.0 0 1.0 0.0 0.319477791748 0.0668098207629 -0.968995711004
216 1 1 0 1.0 0 1.0 0.0 1.37947937354 -0.872385197652 2.23611072725
217 1 1 0 1.0 0 1.0 0.0 -1.95307769095 -1.89464771721 -3.92981537292
218 1 1 0 1.0 0 1.0 0.0 -3.6540342693 -4.22189579838 -1.31073691738
219 1 1 0 1.0 0 1.0 0.0 2.32813054255 -3.47282596642 -0.689361428493
220 1 1 0 1.0 0 1.0 0.0 -2.83751263188 4.24710908006 2.48265373917
221 1 1 0 1.0 0 1.0 0.0 0.975721790826 -2.87119448793 -1.78422132636
222 1 1 0 1.0 0 1.0 0.0 2.52851231119 -3.02585763572 -2.61292662668
223 1 1 0 1.0 0 1.0 0.0 0.577023401642 4.08928905922 -2.41232812657
224 1 1 0 1.0 0 1.0 0.0 -0.0968149640594 3.17994653884 4.98134982996
225 1 1 0 1.0 0 1.0 0.0 1.60968187541 0.11087991101 -1.69823126018
226 1 1 0 1.0 0 1.0 0.0 1.34205236466 -2.22309635879 1.82733698093
227 1 1 0 1.0 0 1.0 0.0 -1.73247989353 4.97074297629 1.33051287413
228 1 1 0 1.0 0 1.0 0.0 2.58533355348 -2.40852394253 2.92263660587
229 1 1 0 1.0 0 1.0 0.0 -1.60140549894 -1.1473113521 0.513865472195
230 1 1 0 1.0 0 1.0 0.0 -3.60451970511 -1.54899819665 -1.41645789147
231 1 1 0 1.0 0 1.0 0.0 3.17389220252 4.94054241893 -3.90795237982
232 1 1 0 1.0 0 1.0 0.0 -2.05836698992 2.83974029317 3.45456231548
233 1 1 0 1.0 0 1.0 0.0 3.98998345883 1.26790408343 3.26263458233
234 1 1 0 1.0 0 1.0 0.0 1.75162016196 0.912058955998 0.979911746468
235 1 1 0 1.0 0 1.0 0.0 -4.92716117749 -1.96749785321 -0.105001770167
236 1 1 0 1.0 0 1.0 0.0 -0.796368146166 2.5385949451 -4.36494829818
237 1 1 0 1.0 0 1.0 0.0 -4.47521687984 3.53681084036 -1.90807235575
238 1 1 0 1.0 0 1.0 0.0 2.15149767548 2.54131729812 -2.05117420127
239 1 1 0 1.0 0 1.0 0.0 -1.02261406203 -3.03438798187 -1.58663019404
240 1 1 0 1.0 0 1.0 0.0 0.779622463877 -3.45798124763 3.73384736653
241 1 1 0 1.0 0 1.0 0.0 -2.07669122855 3.97662922304 -3.939141859
242 1 1 0 1.0 0 1.0 0.0 -4.34898317225 0.691486885064 3.42194034996
243 1 1 0 1.0 0 1.0 0.0 -1.05469304989 3.36658680209 -2.095526797
244 1 1 0 1.0 0 1.0 0.0 -4.2125254713 2.75892324897 -3.66187458943
245 1 1 0 1.0 0 1.0 0.0 0.027552348783 -2.76394911794 2.63356384314
246 1 1 0 1.0 0 1.0 0.0 0.95663305255 -1.47395101716 3.60139065769
247 1 1 0 1.0 0 1.0 0.0 1.02506296557 1.25953445749 -2.7811517532
248 1 1 0 1.0 0 1.0 0.0 -2.09278046569 -1.46845762958 2.05820331481
249 1 1 0 1.0 0 1.0 0.0 2.72087022434 -1.12760662503 -3.83209492542
250 1 1 0 1.0 0 1.0 0.0 2.7708980392 -0.628120710298 1.7883208041
251 1 1 0 1.0 0 1.0 0.0 -4.46771408999 -0.795275513949 0.436536895055
252 1 1 0 1.0 0 1.0 0.0 -0.357899935748 -3.6582271716 -4.3829231922
253 1 1 0 1.0 0 1.0 0.0 1.43015884781 -4.09266218135 -0.345216471128
254 1 1 0 1.0 0 1.0 0.0 -1.02261027444 -0.524413061018 -0.299314229794
255 1 1 0 1.0 0 1.0 0.0 -4.67418507757 4.84187275294 1.28415769819
256 1 1 0 1.0 0 1.0 0.0 4.90800593215 0.383875854155 -1.70288003747
257 1 1 0 1.0 0 1.0 0.0 0.670960606788 -3.18420270018 3.71980167702
258 1 1 0 1.0 0 1.0 0.0 0.988756502182 4.09531472237 -4.77261452852
259 1 1 0 1.0 0 1.0 0.0 2.27801025673 -4.1667107032 1.15417068369
260 1 1 0 1.0 0 1.0 0.0 -0.420950012633 3.68571067686 -2.38618221241
261 1 1 0 1.0 0 1.0 0.0 3.53480250963 0.186984901156 4.97298695276
262 1 1 0 1.0 0 1.0 0.0 2.6320360093 4.44203973695 2.38110781473
263 1 1 0 1.0 0 1.0 0.0 1.68455540505 -3.72907005404 -3.19967704216
264 1 1 0 1.0 0 1.0 0.0 -1.47994481276 3.11772559333 -1.33913020539
265 1 1 0 1.0 0 1.0 0.0 1.09145527278 -0.130260700699 -1.99817603851
266 1 1 0 1.0 0 1.0 0.0 -1.67739125526 4.922658268 0.16029644858
267 1 1 0 1.0 0 1.0 0.0 1.49944713933 1.81077371969 3.03360705251
268 1 1 0 1.0 0 1.0 0.0 2.34585652239 -4.77786518249 -0.817425984913
269 1 1 0 1.0 0 1.0 0.0 2.98687303558 -2.46601482362 -3.12787988058
270 1 1 0 1.0 0 1.0 0.0 -0.839479627377 3.62809573458 4.26504959266
271 1 1 0 1.0 0 1.0 0.0 1.53593700608 -4.69371093483 1.56206861183
272 1 1 0 1.0 0 1.0 0.0 2.51126671146 -1.88682369528 -3.80660026887
273 1 1 0 1.0 0 1.0 0.0 2.83864789661 4.42823260049 1.26726188534
274 1 1 0 1.0 0 1.0 0.0 -1.45118846571 0.0179696531834 -4.09920318095
275 1 1 0 1.0 0 1.0 0.0 -3.59092648103 3.41211373855 -0.860188522128
276 1 1 0 1.0 0 1.0 0.0 1.55144477464 1.50817728553 1.82607950376
277 1 1 0 1.0 0 1.0 0.0 -3.03219942873 4.43962578804 2.91080571457
278 1 1 0 1.0 0 1.0 0.0 1.45693530039 -0.639951237966 -4.20231344821
279 1 1 0 1.0 0 1.0 0.0 4.06631924161 3.03886005003 2.31155712335
280 1 1 0 1.0 0 1.0 0.0 1.09857200797 0.935108213036 -0.992950797879
281 1 1 0 1.0 0 1.0 0.0 3.95251971043 -1.48766732525 4.53832851956
282 1 1 0 1.0 0 1.0 0.0 -3.03917963204 1.37906833296 2.54145207479
283 1 1 0 1.0 0 1.0 0.0 -1.2547914695 4.57509084784 -4.74090844845
284 1 1 0 1.0 0 1.0 0.0 -0.0844038137412 -4.68229834563 1.90422090585
285 1 1 0 1.0 0 1.0 0.0 -3.29218407611 -3.45362752885 -4.23505938777
286 1 1 0 1.0 0 1.0 0.0 4.69738180614 -1.25432060165 -3.49722836793
287 1 1 0 1.0 0 1.0 0.0 0.117535010587 -1.01746025972 -2.59542162644
288 1 1 0 1.0 0 1.0 0.0 -0.97567680745 4.22203414549 4.78145985303
289 1 1 0 1.0 0 1.0 0.0 -0.319592855814 0.0899256124389 4.41502601471
290 1 1 0 1.0 0 1.0 0.0 3.12790593788 -3.9411723545 1.44717369825
291 1 1 0 1.0 0 1.0 0.0 0.52181568057 -0.553061746155 1.50701148814
292 1 1 0 1.0 0 1.0 0.0 0.606930044678 -2.23882314005 -1.19275361387
293 1 1 0 1.0 0 1.0 0.0 1.19952049903 -4.7582920706 -2.3577634302
294 1 1 0 1.0 0 1.0 0.0 -4.64829567806 -2.41470002472 -2.81561256123
295 1 1 0 1.0 0 1.0 0.0 1.63940624169 3.60978668712 -4.33780356205
296 1 1 0 1.0 0 1.0 0.0 2.88017837575 4.52092212725 4.65587418754
297 1 1 0 1.0 0 1.0 0.0 -3.60639103062 -0.991019169417 3.4428081717
298 1 1 0 1.0 0 1.0 0.0 -2.38037228499 2.54829148481 -2.10898868895
299 1 1 0 1.0 0 1.0 0.0 -1.49751337199 -3.10117597735 -2.46675670413
300 1 1 0 1.0 0 1.0 0.0 2.43230876577 2.32996848886 3.15759311954
301 1 1 0 1.0 0 1.0 0.0 -0.563848926939 -3.47125089391 3.84369136968
302 1 1 0 1.0 0 1.0 0.0 -3.63040681397 0.0652676898797 -3.39890132041
303 1 1 0 1.0 0 1.0 0.0 1.86848680402 2.66644097144 -3.72957154941
304 1 1 0 1.0 0 1.0 0.0 0.821351727005 -3.49927647869 -1.03219211274
305 1 1 0 1.0 0 1.0 0.0 -2.46008619018 -4.42734557293 2.22105916365
306 1 1 0 1.0 0 1.0 0.0 -0.791955333797 -4.72251880923 0.0750069857642
307 1 1 0 1.0 0 1.0 0.0 2.77148361977 -4.63645267205 4.4007710444
308 1 1 0 1.0 0 1.0 0.0 1.02685918773 -0.30254678252 -1.54810923732
309 1 1 0 1.0 0 1.0 0.0 -4.94684735966 -0.969118579418 -3.17153668706
310 1 1 0 1.0 0 1.0 0.0 -4.63829516606 4.51959796583 0.233044243364
311 1 1 0 1.0 0 1.0 0.0 3.67327166772 -3.51857141191 -4.66440161746
312 1 1 0 1.0 0 1.0 0.0 4.89788343487 -1.43115265643 0.00585726501165
313 1 1 0 1.0 0 1.0 0.0 -1.69993142697 -1.13547111124 -4.31598241982
314 1 1 0 1.0 0 1.0 0.0 1.46785669986 1.04359144353 2.59245385364
315 1 1 0 1.0 0 1.0 0.0 4.81295829124 -3.58592608409 4.02774092945
316 1 1 0 1.0 0 1.0 0.0 0.221125501488 0.842295074374 -2.6972491259
317 1 1 0 1.0 0 1.0 0.0 -2.88759713075 -0.832816911497 1.98354941122
318 1 1 0 1.0 0 1.0 0.0 0.242974137387 0.792183655072 0.13901856337
319 1 1 0 1.0 0 1.0 0.0 -1.4177906789 -3.70692223631 -4.04206190339
320 1 1 0 1.0 0 1.0 0.0 -3.61664607436 -0.577048580657 -0.841214521076
321 1 1 0 1.0 0 1.0 0.0 -2.88797787556 -1.95790697782 1.78688461323
322 1 1 0 1.0 0 1.0 0.0 -0.69849942175 -1.57209251663 2.60015115633
323 1 1 0 1.0 0 1.0 0.0 2.93677045651 1.58513182466 -1.41759205364
324 1 1 0 1.0 0 1.0 0.0 -0.379477705374 1.89403126544 -4.30536511304
325 1 1 0 1.0 0 1.0 0.0 -0.595216140787 -2.04410427895 -4.07581842986
326 1 1 0 1.0 0 1.0 0.0 -4.21961454025 0.794802535974 2.52711001593
327 1 1 0 1.0 0 1.0 0.0 -4.48369933223 0.795322938537 -1.35599030533
328 1 1 0 1.0 0 1.0 0.0 2.93175469134 4.49619201405 3.83280389652
329 1 1 0 1.0 0 1.0 0.0 1.54107445659 2.28643435122 -2.33827944101
330 1 1 0 1.0 0 1.0 0.0 -1.74676835863 -3.6803665006 4.63991630002
331 1 1 0 1.0 0 1.0 0.0 -2.73463772719 1.0632409716 -2.77602727646
332 1 1 0 1.0 0 1.0 0.0 4.9241743325 0.802073474211 0.191695722117
333 1 1 0 1.0 0 1.0 0.0 -1.53376657196 -0.19052199783 -4.6187357739
334 1 1 0 1.0 0 1.0 0.0 1.42810028926 -4.60114618775 -0.781496598695
335 1 1 0 1.0 0 1.0 0.0 0.743384830284 1.29267643618 2.56574790056
336 1 1 0 1.0 0 1.0 0.0 1.89760455084 -0.586587904095 1.7429161961
337 1 1 0 1.0 0 1.0 0.0 -2.30743717926 2.20222453771 3.06417417671
338 1 1 0 1.0 0 1.0 0.0 1.69167713822 2.98935540207 4.0258957906
339 1 1 0 1.0 0 1.0 0.0 -1.37814116372 -2.15074178703 -4.23301295396
340 1 1 0 1.0 0 1.0 0.0 0.892658300105 2.75168277325 -2.76625969066
341 1 1 0 1.0 0 1.0 0.0 -4.71814130331 2.47018514277 -0.786574008082
342 1 1 0 1.0 0 1.0 0.0 -0.0502827273095 -3.25537317937 4.75669727865
343 1 1 0 1.0 0 1.0 0.0 -2.87198787416 -0.0580785844369 -3.32069825632
344 1 1 0 1.0 0 1.0 0.0 -4.63316549797 0.761667701499 1.89603621162
345 1 1 0 1.0 0 1.0 0.0 4.17567350061 1.00836952093 0.0400620443755
346 1 1 0 1.0 0 1.0 0.0 -1.76904381099 -4.67832280858 2.77752630488
347 1 1 0 1.0 0 1.0 0.0 2.71539295735 1.35634929919 2.98496981673
348 1 1 0 1.0 0 1.0 0.0 -3.81988991679 4.38357864258 -3.68754462956
349 1 1 0 1.0 0 1.0 0.0 0.437684893307 -4.37866280342 -1.37326344589
350 1 1 0 1.0 0 1.0 0.0 -2.3035545159 -2.51510139694 -4.52949471159
351 1 1 0 1.0 0 1.0 0.0 -1.93132532268 4.37920971946 2.648547937
352 1 1 0 1.0 0 1.0 0.0 -2.9679094481 4.65735427372 3.95322260467
353 1 1 0 1.0 0 1.0 0.0 -1.98408751963 -1.57702262318 -3.42735344361
354 1 1 0 1.0 0 1.0 0.0 -2.17758249376 1.04289031416 4.86128060494
355 1 1 0 1.0 0 1.0 0.0 -3.06705831041 -1.3016096116 -3.94215694413
356 1 1 0 1.0 0 1.0 0.0 -0.323305264654 2.69189308061 -0.890859397744
357 1 1 0 1.0 0 1.0 0.0 3.61131122253 1.05398424015 0.228269253189
358 1 1 0 1.0 0 1.0 0.0 -0.771699932488 -4.10575936771 1.94406090244
359 1 1 0 1.0 0 1.0 0.0 0.962497585048 4.17765497404 -1.37247548444
360 1 1 0 1.0 0 1.0 0.0 -2.41109032033 -2.32350460519 -4.53652486504
361 1 1 0 1.0 0 1.0 0.0 -2.29553078875 -3.85841866695 -0.119571041467
362 1 1 0 1.0 0 1.0 0.0 0.9321038484 2.09534186416 0.437197792308
363 1 1 0 1.0 0 1.0 0.0 4.40534244813 0.417623278094 1.32713321138
364 1 1 0 1.0 0 1.0 0.0 2.67573447511 -1.10383772596 1.42898029112
365 1 1 0 1.0 0 1.0 0.0 4.51430638605 -2.13896192254 1.10387780016
366 1 1 0 1.0 0 1.0 0.0 -4.11458211184 -4.65975645274 2.01605325347
367 1 1 0 1.0 0 1.0 0.0 4.24097764175 -3.65043756386 -3.16473957081
368 1 1 0 1.0 0 1.0 0.0 -3.12499826329 2.50576019593 4.37132816199
369 1 1 0 1.0 0 1.0 0.0 -2.3911522392 1.01223902084 1.24478237205
370 1 1 0 1.0 0 1.0 0.0 -0.213971576365 0.663037914858 -4.24921905147
371 1 1 0 1.0 0 1.0 0.0 1.76468042406 -2.99236838779 3.81198107752
372 1 1 0 1.0 0 1.0 0.0 -0.0759695179374 4.35606024075 4.39843650373
373 1 1 0 1.0 0 1.0 0.0 -0.0801776593298 1.18777667311 -3.04804425286
374 1 1 0 1.0 0 1.0 0.0 0.0488786442341 -4.39345767273 1.10119013091
375 1 1 0 1.0 0 1.0 0.0 2.66488958216 0.440078887503 -4.39500536141
376 1 1 0 1.0 0 1.0 0.0 3.24338271232 -3.64976244912 1.40659183623
377 1 1 0 1.0 0 1.0 0.0 3.71682764292 2.34513385306 -1.87387896965
378 1 1 0 1.0 0 1.0 0.0 2.11968285272 4.49261779201 2.1287514935
379 1 1 0 1.0 0 1.0 0.0 0.909201210558 -4.09735806842 -2.38675134862
380 1 1 0 1.0 0 1.0 0.0 -4.1988690147 -0.605101254647 -4.31630385503
381 1 1 0 1.0 0 1.0 0.0 3.68933805517 3.20352024868 -4.57026443638
382 1 1 0 1.0 0 1.0 0.0 0.893144116641 -4.00933861342 -2.26384801055
383 1 1 0 1.0 0 1.0 0.0 4.19968552971 0.749349966079 2.80657908163
384 1 1 0 1.0 0 1.0 0.0 2.92637188115 3.98400712602 -0.212119593889
385 1 1 0 1.0 0 1.0 0.0 -2.12217737286 3.32037995256 -3.19196713491
386 1 1 0 1.0 0 1.0 0.0 -1.35649152043 -2.22263011835 3.971233979
387 1 1 0 1.0 0 1.0 0.0 -2.34721198842 -4.65117965315 0.120627223608
388 1 1 0 1.0 0 1.0 0.0 -1.78274576712 1.78258404049 1.58153102812
389 1 1 0 1.0 0 1.0 0.0 -4.75662603891 -4.67463867303 -2.87055486174
390 1 1 0 1.0 0 1.0 0.0 -4.97835852735 1.61807996556 1.55877395613
391 1 1 0 1.0 0 1.0 0.0 -2.00547385412 -2.72925511009 -2.50568278043
392 1 1 0 1.0 0 1.0 0.0 3.24877593487 3.49481348006 -4.21331477533
393 1 1 0 1.0 0 1.0 0.0 -0.209758072224 -1.92181852319 -4.73632880209
394 1 1 0 1.0 0 1.0 0.0 -2.88860675181 3.91461287908 -4.23235746955
395 1 1 0 1.0 0 1.0 0.0 -1.21982329591 3.20819963739 -3.14703379701
396 1 1 0 1.0 0 1.0 0.0 4.34361844186 -1.05897914324 -1.05620605619
397 1 1 0 1.0 0 1.0 0.0 1.06102249708 -1.65409951578 -0.659923246119
398 1 1 0 1.0 0 1.0 0.0 -4.66555689289 -4.21334797549 -4.32204646335
399 1 1 0 1.0 0 1.0 0.0 -3.02527293301 -1.9348164401 -1.39483606251
400 1 1 0 1.0 0 1.0 0.0 2.58855472164 2.50789897726 -3.26122338385
401 1 1 0 1.0 0 1.0 0.0 -4.85270964685 -4.12589068635 0.951329108343
402 1 1 0 1.0 0 1.0 0.0 -3.56808852427 -3.1572038521 0.0449352294342
403 1 1 0 1.0 0 1.0 0.0 -0.129761857226 3.62368047472 -4.01784954481
404 1 1 0 1.0 0 1.0 0.0 3.79500650585 -2.77423678562 4.03222644386
405 1 1 0 1.0 0 1.0 0.0 0.0382269707286 -2.16343663006 1.25226577055
406 1 1 0 1.0 0 1.0 0.0 -2.88914607723 -0.908085486414 3.31591285635
407 1 1 0 1.0 0 1.0 0.0 -1.12534088445 4.83072170174 4.21070940288
408 1 1 0 1.0 0 1.0 0.0 0.99715634342 -2.64406328527 -3.81776636707
409 1 1 0 1.0 0 1.0 0.0 -0.15830092195 4.31849966754 -3.25290170102
410 1 1 0 1.0 0 1.0 0.0 -0.620541684652 -3.3987344345 -4.68407458665
411 1 1 0 1.0 0 1.0 0.0 -0.562823722221 3.77160989606 -2.22567735738
412 1 1 0 1.0 0 1.0 0.0 0.725730421848 -3.15395330129 -3.40253602775
413 1 1 0 1.0 0 1.0 0.0 2.50877974751 1.28744935988 -0.290315303644
414 1 1 0 1.0 0 1.0 0.0 -3.6766776012 4.11460873259 3.20623393797
415 1 1 0 1.0 0 1.0 0.0 0.857120631627 -0.500334290902 3.48909553757
416 1 1 0 1.0 0 1.0 0.0 0.0949919143755 1.47159910362 -4.62692042751
417 1 1 0 1.0 0 1.0 0.0 -4.56465965871 -0.30623321368 2.79093116542
418 1 1 0 1.0 0 1.0 0.0 -0.00841834302999 -1.92489149528 -0.665035869467
419 1 1 0 1.0 0 1.0 0.0 -2.81219329654 0.0822547185855 -1.95143571973
420 1 1 0 1.0 0 1.0 0.0 -4.40643390063 -0.309502763758 -3.61717584866
421 1 1 0 1.0 0 1.0 0.0 4.03563065019 3.48661845797 -2.58464668769
422 1 1 0 1.0 0 1.0 0.0 4.16049593308 2.69867110937 0.657006927057
423 1 1 0 1.0 0 1.0 0.0 3.79732071269 1.72318316465 -4.15178865954
424 1 1 0 1.0 0 1.0 0.0 -0.755604758261 -1.65965552251 -3.3401931413
425 1 1 0 1.0 0 1.0 0.0 4.28671040721 1.00523535602 -0.603877169767
426 1 1 0 1.0 0 1.0 0.0 4.74997769976 0.888845950466 1.04838385271
427 1 1 0 1.0 0 1.0 0.0 -0.62487149462 0.555570041128 -2.92862806978
428 1 1 0 1.0 0 1.0 0.0 1.84357079424 2.44160548125 -3.62533770155
429 1 1 0 1.0 0 1.0 0.0 0.570694452601 3.51588890182 4.37674456284
430 1 1 0 1.0 0 1.0 0.0 1.70645215926 2.76828946165 4.66266174473
431 1 1 0 1.0 0 1.0 0.0 2.6923717937 0.970757090165 -3.79710745884
432 1 1 0 1.0 0 1.0 0.0 4.21685669849 -3.688943436 3.64612819956
433 1 1 0 1.0 0 1.0 0.0 -4.43439941545 -0.730223734505 2.1807680248
434 1 1 0 1.0 0 1.0 0.0 2.87732101323 -2.02450224938 2.34430436402
435 1 1 0 1.0 0 1.0 0.0 3.07194582616 -2.27090116886 -2.07221615877
436 1 1 0 1.0 0 1.0 0.0 -4.37466500127 -2.10470193164 3.16673586596
437 1 1 0 1.0 0 1.0 0.0 3.35552365377 3.93992677355 -3.0603310611
438 1 1 0 1.0 0 1.0 0.0 0.794699047137 1.5082779878 2.12519293302
439 1 1 0 1.0 0 1.0 0.0 -4.1164462628 1.59410691624 4.90438985664
440 1 1 0 1.0 0 1.0 0.0 2.98720811665 0.775428169382 2.77689289149
441 1 1 0 1.0 0 1.0 0.0 4.56691800581 -1.01101552582 1.09885788517