Create by autotest system
4 atoms
2 atom types
-5 5 xlo xhi
-5 5 ylo yhi
-5 5 zlo zhi
Masses

1 1.000794
2 0.000544616997098749

Atoms

1 1 1 0 1 0 1.0 0.0 -1.03281812068 -3.14542487864 -1.92591138328
2 1 1 0 1 0 1.0 0.0 1.0454455457 2.37650717159 2.66752976943
3 1 1 0 1 0 1.0 0.0 2.93896947119 -4.38224784878 -3.90381438618
4 1 1 0 1 0 1.0 0.0 2.14067828745 -4.60604134197 3.61334106002
