Create by autotest system
4 atoms
2 atom types
-5 5 xlo xhi
-5 5 ylo yhi
-5 5 zlo zhi
Masses

1 1.000794
2 0.000544616997098749

Atoms

1 1 1 0 1 0 1.0 0.0 2.21482069847 2.3803421078 2.45510892397
2 1 1 0 1 0 1.0 0.0 -4.99539007399 -2.89271631932 -0.973532993523
3 2 -1 1 0.202950451288 1 1.0 0.0 4.63697475348 -1.03620470252 -0.906880177446
4 2 -1 1 4.50513770932 2 1.0 0.0 0.592222736469 -3.17976357477 -4.49222763596

